* SET QPATCH = NO
*  DATE:     4/25/24     22:45: 0      CREATED BY USER: apache
*
        15  EXT
         1         1  TOLU      CB              0.0130000000        2.9240000000        0.0780000000  HETB      1               0.0000000000
         2         1  TOLU      HB1             0.9000000000        3.2050000000        0.4340000000  HETB      1               0.0000000000
         3         1  TOLU      HB2            -0.7110000000        3.1990000000        0.7040000000  HETB      1               0.0000000000
         4         1  TOLU      HB3            -0.1460000000        3.4580000000       -0.8590000000  HETB      1               0.0000000000
         5         1  TOLU      CG              0.0030000000        1.4160000000       -0.0090000000  HETB      1               0.0000000000
         6         1  TOLU      CE1            -1.2030000000        0.7060000000        0.0130000000  HETB      1               0.0000000000
         7         1  TOLU      HE1            -2.0660000000        1.1890000000        0.0380000000  HETB      1               0.0000000000
         8         1  TOLU      CD1            -1.2090000000       -0.7090000000       -0.0000000000  HETB      1               0.0000000000
         9         1  TOLU      HD1            -2.0840000000       -1.1930000000        0.0030000000  HETB      1               0.0000000000
        10         1  TOLU      CZ              0.0010000000       -1.4090000000       -0.0150000000  HETB      1               0.0000000000
        11         1  TOLU      HZ             -0.0010000000       -2.4030000000       -0.0360000000  HETB      1               0.0000000000
        12         1  TOLU      CD2             1.2090000000       -0.7050000000       -0.0000000000  HETB      1               0.0000000000
        13         1  TOLU      HD2             2.0890000000       -1.1960000000        0.0040000000  HETB      1               0.0000000000
        14         1  TOLU      CE2             1.1990000000        0.7000000000        0.0110000000  HETB      1               0.0000000000
        15         1  TOLU      HE2             2.0700000000        1.1920000000        0.0320000000  HETB      1               0.0000000000
