;
;	File 'topol.top' was generated
;	By user: xtzhang (4007)
;	On host: f102.hn.org
;	At date: Fri Mar 21 11:38:11 2025
;
;	This is a standalone topology file
;
;	Created by:
;	                    :-) GROMACS - gmx pdb2gmx, 2024.2 (-:
;	
;	Executable:   /pubhome/soft/gromacs/2024.2/gpu/bin/gmx
;	Data prefix:  /pubhome/soft/gromacs/2024.2/gpu
;	Working dir:  /pubhome/xtzhang/projects/protac/pep/evobind/md_filter/VNFNAPDSP/md/VVFNAPASP
;	Command line:
;	  gmx pdb2gmx -f VVFNAPASP.pdb -o complex.pdb -ff charmm36-jul2022 -water tip3p -ignh
;	Force field data was read from:
;	/pubhome/xtzhang/projects/scripts/md
;
;	Note:
;	This might be a non-standard force field location. When you use this topology, the
;	force field must either be present in the current directory, or the location
;	specified in the GMXLIB path variable or with the 'include' mdp file option.
;

; Include forcefield parameters
#include "./charmm36.ff/forcefield.itp"

; Include chain topologies
#include "1tolu.itp"
#include "1etoh.itp"

; Include water topology
#include "./charmm36.ff/tip3p.itp"

#ifdef POSRES_WATER
; Position restraint for each water oxygen
[ position_restraints ]
;  i funct       fcx        fcy        fcz
   1    1       1000       1000       1000
#endif

; Include topology for ions
#include "./charmm36.ff/ions.itp"

[ system ]
; Name
pair

[ molecules ]
; Compound        #mols
tolu 1
etoh 1