* GENERATED BY PARMED (HTTPS://GITHUB.COM/PARMED/PARMED)
*
        15  EXT
         1         1  TOLU      C3              0.0130000000        2.9240000000        0.0780000000  HETB      1               0.0000000000
         2         1  TOLU      H7              0.9000000000        3.2050000000        0.4340000000  HETB      1               0.0000000000
         3         1  TOLU      H8             -0.7110000000        3.1990000000        0.7040000000  HETB      1               0.0000000000
         4         1  TOLU      H9             -0.1460000000        3.4580000000       -0.8590000000  HETB      1               0.0000000000
         5         1  TOLU      C4              0.0030000000        1.4160000000       -0.0090000000  HETB      1               0.0000000000
         6         1  TOLU      C5             -1.2030000000        0.7060000000        0.0130000000  HETB      1               0.0000000000
         7         1  TOLU      H10            -2.0660000000        1.1890000000        0.0380000000  HETB      1               0.0000000000
         8         1  TOLU      C6             -1.2090000000       -0.7090000000       -0.0000000000  HETB      1               0.0000000000
         9         1  TOLU      H11            -2.0840000000       -1.1930000000        0.0030000000  HETB      1               0.0000000000
        10         1  TOLU      C7              0.0010000000       -1.4090000000       -0.0150000000  HETB      1               0.0000000000
        11         1  TOLU      H12            -0.0010000000       -2.4030000000       -0.0360000000  HETB      1               0.0000000000
        12         1  TOLU      C8              1.2090000000       -0.7050000000       -0.0000000000  HETB      1               0.0000000000
        13         1  TOLU      H13             2.0890000000       -1.1960000000        0.0040000000  HETB      1               0.0000000000
        14         1  TOLU      C9              1.1990000000        0.7000000000        0.0110000000  HETB      1               0.0000000000
        15         1  TOLU      H14             2.0700000000        1.1920000000        0.0320000000  HETB      1               0.0000000000
