* GENERATED BY CHARMM-GUI (HTTP://WWW.CHARMM-GUI.ORG) V3.7 ON APR, 25. 2024. JOB
* READ PDB, MANIPULATE STRUCTURE IF NEEDED, AND GENERATE TOPOLOGY FILE
*  DATE:     4/26/24     10:32:39      CREATED BY USER: chenzhao
*
        24  EXT
         1         1  ETOH      C2            -0.0360000000       -0.0010000000       -3.4630000000  HETA      1               0.0000000000
         2         1  ETOH      H21           -0.6480000000        0.3820000000       -2.7740000000  HETA      1               0.0000000000
         3         1  ETOH      H22            0.9070000000        0.0510000000       -3.1430000000  HETA      1               0.0000000000
         4         1  ETOH      H23           -0.1320000000        0.5040000000       -4.3180000000  HETA      1               0.0000000000
         5         1  ETOH      C1            -0.4090000000       -1.4830000000       -3.7050000000  HETA      1               0.0000000000
         6         1  ETOH      H11            0.2280000000       -2.0830000000       -3.1890000000  HETA      1               0.0000000000
         7         1  ETOH      H12           -0.3610000000       -1.7300000000       -4.7650000000  HETA      1               0.0000000000
         8         1  ETOH      O1            -1.7410000000       -1.7550000000       -3.2490000000  HETA      1               0.0000000000
         9         1  ETOH      HO1           -2.4030000000       -1.1870000000       -3.7470000000  HETA      1               0.0000000000
        10         2  TOLU      CT             0.0130000000        2.9240000000        0.0780000000  HETB      1               0.0000000000
        11         2  TOLU      H11            0.9000000000        3.2050000000        0.4340000000  HETB      1               0.0000000000
        12         2  TOLU      H12           -0.7110000000        3.1990000000        0.7040000000  HETB      1               0.0000000000
        13         2  TOLU      H13           -0.1460000000        3.4580000000       -0.8590000000  HETB      1               0.0000000000
        14         2  TOLU      CZ             0.0030000000        1.4160000000       -0.0090000000  HETB      1               0.0000000000
        15         2  TOLU      CE1           -1.2030000000        0.7060000000        0.0130000000  HETB      1               0.0000000000
        16         2  TOLU      HE1           -2.0660000000        1.1890000000        0.0380000000  HETB      1               0.0000000000
        17         2  TOLU      CD1           -1.2090000000       -0.7090000000       -0.0000000000  HETB      1               0.0000000000
        18         2  TOLU      HD1           -2.0840000000       -1.1930000000        0.0030000000  HETB      1               0.0000000000
        19         2  TOLU      CG             0.0010000000       -1.4090000000       -0.0150000000  HETB      1               0.0000000000
        20         2  TOLU      HG            -0.0010000000       -2.4030000000       -0.0360000000  HETB      1               0.0000000000
        21         2  TOLU      CD2            1.2090000000       -0.7050000000       -0.0000000000  HETB      1               0.0000000000
        22         2  TOLU      HD2            2.0890000000       -1.1960000000        0.0040000000  HETB      1               0.0000000000
        23         2  TOLU      CE2            1.1990000000        0.7000000000        0.0110000000  HETB      1               0.0000000000
        24         2  TOLU      HE2            2.0700000000        1.1920000000        0.0320000000  HETB      1               0.0000000000
