PSF EXT CMAP CHEQ XPLOR

         3 !NTITLE
* GENERATED BY CHARMM-GUI (HTTP://WWW.CHARMM-GUI.ORG) V3.7 ON APR, 25. 2024. JOB
* READ PDB, MANIPULATE STRUCTURE IF NEEDED, AND GENERATE TOPOLOGY FILE          
*  DATE:     4/26/24     10:32:39      CREATED BY USER: chenzhao                

        24 !NATOM
         1 HETA     1        ETOH     C2       CG331   -0.272000       12.0110           0   0.00000     -0.301140E-02
         2 HETA     1        ETOH     H21      HGA3     0.900000E-01   1.00800           0   0.00000     -0.301140E-02
         3 HETA     1        ETOH     H22      HGA3     0.900000E-01   1.00800           0   0.00000     -0.301140E-02
         4 HETA     1        ETOH     H23      HGA3     0.900000E-01   1.00800           0   0.00000     -0.301140E-02
         5 HETA     1        ETOH     C1       CG321    0.530000E-01   12.0110           0   0.00000     -0.301140E-02
         6 HETA     1        ETOH     H11      HGA2     0.900000E-01   1.00800           0   0.00000     -0.301140E-02
         7 HETA     1        ETOH     H12      HGA2     0.900000E-01   1.00800           0   0.00000     -0.301140E-02
         8 HETA     1        ETOH     O1       OG311   -0.650000       15.9994           0   0.00000     -0.301140E-02
         9 HETA     1        ETOH     HO1      HGP1     0.419000       1.00800           0   0.00000     -0.301140E-02
        10 HETB     1        TOLU     CT       CG331   -0.264000       12.0110           0   0.00000     -0.301140E-02
        11 HETB     1        TOLU     H11      HGA3     0.900000E-01   1.00800           0   0.00000     -0.301140E-02
        12 HETB     1        TOLU     H12      HGA3     0.900000E-01   1.00800           0   0.00000     -0.301140E-02
        13 HETB     1        TOLU     H13      HGA3     0.900000E-01   1.00800           0   0.00000     -0.301140E-02
        14 HETB     1        TOLU     CZ       CG2R61   0.280000E-01   12.0110           0   0.00000     -0.301140E-02
        15 HETB     1        TOLU     CE1      CG2R61  -0.114000       12.0110           0   0.00000     -0.301140E-02
        16 HETB     1        TOLU     HE1      HGR61    0.115000       1.00800           0   0.00000     -0.301140E-02
        17 HETB     1        TOLU     CD1      CG2R61  -0.133000       12.0110           0   0.00000     -0.301140E-02
        18 HETB     1        TOLU     HD1      HGR61    0.115000       1.00800           0   0.00000     -0.301140E-02
        19 HETB     1        TOLU     CG       CG2R61  -0.115000       12.0110           0   0.00000     -0.301140E-02
        20 HETB     1        TOLU     HG       HGR61    0.115000       1.00800           0   0.00000     -0.301140E-02
        21 HETB     1        TOLU     CD2      CG2R61  -0.133000       12.0110           0   0.00000     -0.301140E-02
        22 HETB     1        TOLU     HD2      HGR61    0.115000       1.00800           0   0.00000     -0.301140E-02
        23 HETB     1        TOLU     CE2      CG2R61  -0.114000       12.0110           0   0.00000     -0.301140E-02
        24 HETB     1        TOLU     HE2      HGR61    0.115000       1.00800           0   0.00000     -0.301140E-02

        23 !NBOND: bonds
         7         5         4         1         9         8         5         1
         5         8         5         6         1         3         1         2
        13        10        20        19        19        17        19        21
        14        23        14        15        14        10        17        18
        17        15        21        22        21        23        23        24
        15        16        10        11        10        12

        37 !NTHETA: angles
         2         1         3         2         1         4         2         1         5
         3         1         4         3         1         5         4         1         5
         1         5         6         1         5         7         1         5         8
         6         5         7         6         5         8         7         5         8
         5         8         9        11        10        12        11        10        13
        11        10        14        12        10        13        12        10        14
        13        10        14        10        14        15        10        14        23
        15        14        23        14        15        16        14        15        17
        16        15        17        15        17        18        15        17        19
        18        17        19        17        19        20        17        19        21
        20        19        21        19        21        22        19        21        23
        22        21        23        14        23        21        14        23        24
        21        23        24

        42 !NPHI: dihedrals
         1         5         8         9         2         1         5         6
         2         1         5         7         2         1         5         8
         3         1         5         6         3         1         5         7
         3         1         5         8         4         1         5         6
         4         1         5         7         4         1         5         8
         6         5         8         9         7         5         8         9
        10        14        15        16        10        14        15        17
        10        14        23        21        10        14        23        24
        11        10        14        15        11        10        14        23
        12        10        14        15        12        10        14        23
        13        10        14        15        13        10        14        23
        14        15        17        18        14        15        17        19
        14        23        21        19        14        23        21        22
        15        14        23        21        15        14        23        24
        15        17        19        20        15        17        19        21
        16        15        14        23        16        15        17        18
        16        15        17        19        17        15        14        23
        17        19        21        22        17        19        21        23
        18        17        19        20        18        17        19        21
        19        21        23        24        20        19        21        22
        20        19        21        23        22        21        23        24

         0 !NIMPHI: impropers


         0 !NDON: donors


         0 !NACC: acceptors


         0 !NNB

         0         0         0         0         0         0         0         0
         0         0         0         0         0         0         0         0
         0         0         0         0         0         0         0         0

         2         0 !NGRP NST2
         0         1         0         9         1         0

         1 !MOLNT
         1         1         1         1         1         1         1         1
         1         1         1         1         1         1         1         1
         1         1         1         1         1         1         1         1

         0         0 !NUMLP NUMLPH

         0 !NCRTERM: cross-terms

