* GENERATED BY CHARMM-GUI (HTTP://WWW.CHARMM-GUI.ORG) V3.7 ON APR, 25. 2024. JOB
* READ CRD FILES AND GENERATE DRUDE PSF
* NB: WATER MUST BE LAST SEGMENT GENERATED DO TO NOANGLE NODIHEDRAL
*  DATE:     5/ 9/25      8:23:10      CREATED BY USER: xtzhang
*
        37  EXT
         1         1  ETOH      C1             -2.7765000000        1.0006000000        3.7264000000  HETA      1               0.0000000000
         2         1  ETOH      DC1            -2.7877884138        1.0023951426        3.7259591439  HETA      1               0.0000000000
         3         1  ETOH      O1             -2.7169000000        2.0176000000        2.7183000000  HETA      1               0.0000000000
         4         1  ETOH      DO1            -2.7081573425        2.0142866046        2.7185821844  HETA      1               0.0000000000
         5         1  ETOH      HO1            -3.5321000000        2.6041000000        2.7652000000  HETA      1               0.0000000000
         6         1  ETOH      H1A            -3.1322000000        1.4188000000        4.5811000000  HETA      1               0.0000000000
         7         1  ETOH      H1B            -3.4712000000        0.2271000000        3.3990000000  HETA      1               0.0000000000
         8         1  ETOH      C2             -1.3803000000        0.4354000000        3.9801000000  HETA      1               0.0000000000
         9         1  ETOH      DC2            -1.4002926001        0.4532883467        3.9739330588  HETA      1               0.0000000000
        10         1  ETOH      H2A            -1.1600000000        0.5050000000        4.9551000000  HETA      1               0.0000000000
        11         1  ETOH      H2B            -1.3507000000       -0.5260000000        3.7024000000  HETA      1               0.0000000000
        12         1  ETOH      H2C            -0.7059000000        0.9528000000        3.4510000000  HETA      1               0.0000000000
        13         1  ETOH      LP1A           -2.5513607036        2.2998143555        2.8426052650  HETA      1               0.0000000000
        14         1  ETOH      LP1B           -2.8623794245        1.9011484184        2.4220319352  HETA      1               0.0000000000
        15         2  TOLU      CB             -0.0030000000        2.9040000000        0.0320000000  HETB      1               0.0000000000
        16         2  TOLU      DCB             0.0003900174        2.9111118013        0.0272072431  HETB      1               0.0000000000
        17         2  TOLU      HB1             0.8130000000        3.1990000000        0.5060000000  HETB      1               0.0000000000
        18         2  TOLU      HB2            -0.8190000000        3.1980000000        0.5070000000  HETB      1               0.0000000000
        19         2  TOLU      HB3            -0.0030000000        3.3650000000       -0.9550000000  HETB      1               0.0000000000
        20         2  TOLU      CG             -0.0020000000        1.4000000000        0.0020000000  HETB      1               0.0000000000
        21         2  TOLU      DCG             0.0032918804        1.4038516151       -0.0006273586  HETB      1               0.0000000000
        22         2  TOLU      CD1            -1.1940000000       -0.6990000000        0.0000000000  HETB      1               0.0000000000
        23         2  TOLU      DCD1           -1.1801729186       -0.7141276693       -0.0001841844  HETB      1               0.0000000000
        24         2  TOLU      HD1            -2.0720000000       -1.1910000000        0.0020000000  HETB      1               0.0000000000
        25         2  TOLU      CD2             1.1940000000       -0.6980000000       -0.0000000000  HETB      1               0.0000000000
        26         2  TOLU      DCD2            1.1821685653       -0.7087364190        0.0001684136  HETB      1               0.0000000000
        27         2  TOLU      HD2             2.0800000000       -1.1900000000        0.0020000000  HETB      1               0.0000000000
        28         2  TOLU      CE1            -1.1910000000        0.6930000000       -0.0010000000  HETB      1               0.0000000000
        29         2  TOLU      DCE1           -1.1896142803        0.6837911054       -0.0101477268  HETB      1               0.0000000000
        30         2  TOLU      HE1            -2.0610000000        1.1790000000       -0.0060000000  HETB      1               0.0000000000
        31         2  TOLU      CE2             1.1890000000        0.6950000000       -0.0010000000  HETB      1               0.0000000000
        32         2  TOLU      DCE2            1.1970623527        0.6885505262       -0.0002996999  HETB      1               0.0000000000
        33         2  TOLU      HE2             2.0600000000        1.1880000000       -0.0050000000  HETB      1               0.0000000000
        34         2  TOLU      CZ              0.0030000000       -1.3910000000        0.0000000000  HETB      1               0.0000000000
        35         2  TOLU      DCZ             0.0055170207       -1.3911533497        0.0004216965  HETB      1               0.0000000000
        36         2  TOLU      HZ             -0.0010000000       -2.3930000000        0.0000000000  HETB      1               0.0000000000
        37         2  TOLU      LP             -0.0006476067       -0.0189987111        0.0006476067  HETB      1               0.0000000000
