* GENERATED BY CHARMM-GUI (HTTP://WWW.CHARMM-GUI.ORG) V3.7 ON APR, 25. 2024. JOB
* READ CRD FILES AND GENERATE DRUDE PSF
* NB: WATER MUST BE LAST SEGMENT GENERATED DO TO NOANGLE NODIHEDRAL
*  DATE:     4/29/25     19:37:49      CREATED BY USER: xtzhang
*
        23  EXT
         1         1  TOLU      CB             -0.0030000000        2.9040000000        0.0320000000  HETB      1               0.0000000000
         2         1  TOLU      DCB            -0.0029785432        2.9096635309        0.0320157982  HETB      1               0.0000000000
         3         1  TOLU      HB1             0.8130000000        3.1990000000        0.5060000000  HETB      1               0.0000000000
         4         1  TOLU      HB2            -0.8190000000        3.1980000000        0.5070000000  HETB      1               0.0000000000
         5         1  TOLU      HB3            -0.0030000000        3.3650000000       -0.9550000000  HETB      1               0.0000000000
         6         1  TOLU      CG             -0.0020000000        1.4000000000        0.0020000000  HETB      1               0.0000000000
         7         1  TOLU      DCG            -0.0020937063        1.4045754127        0.0016288655  HETB      1               0.0000000000
         8         1  TOLU      CD1            -1.1940000000       -0.6990000000        0.0000000000  HETB      1               0.0000000000
         9         1  TOLU      DCD1           -1.1807513622       -0.7074041658        0.0000171657  HETB      1               0.0000000000
        10         1  TOLU      HD1            -2.0720000000       -1.1910000000        0.0020000000  HETB      1               0.0000000000
        11         1  TOLU      CD2             1.1940000000       -0.6980000000       -0.0000000000  HETB      1               0.0000000000
        12         1  TOLU      DCD2            1.1807493879       -0.7063195558        0.0000164279  HETB      1               0.0000000000
        13         1  TOLU      HD2             2.0800000000       -1.1900000000        0.0020000000  HETB      1               0.0000000000
        14         1  TOLU      CE1            -1.1910000000        0.6930000000       -0.0010000000  HETB      1               0.0000000000
        15         1  TOLU      DCE1           -1.1954834688        0.6897017625       -0.0005919477  HETB      1               0.0000000000
        16         1  TOLU      HE1            -2.0610000000        1.1790000000       -0.0060000000  HETB      1               0.0000000000
        17         1  TOLU      CE2             1.1890000000        0.6950000000       -0.0010000000  HETB      1               0.0000000000
        18         1  TOLU      DCE2            1.1934199052        0.6917796166       -0.0005951415  HETB      1               0.0000000000
        19         1  TOLU      HE2             2.0600000000        1.1880000000       -0.0050000000  HETB      1               0.0000000000
        20         1  TOLU      CZ              0.0030000000       -1.3910000000        0.0000000000  HETB      1               0.0000000000
        21         1  TOLU      DCZ             0.0030096692       -1.3887288037       -0.0000150099  HETB      1               0.0000000000
        22         1  TOLU      HZ             -0.0010000000       -2.3930000000        0.0000000000  HETB      1               0.0000000000
        23         1  TOLU      LP             -0.0006476067       -0.0189987111        0.0006476067  HETB      1               0.0000000000
