PSF EXT CMAP CHEQ DRUDE XPLOR

         4 !NTITLE
* GENERATED BY CHARMM-GUI (HTTP://WWW.CHARMM-GUI.ORG) V3.7 ON APR, 25. 2024. JOB
* READ CRD FILES AND GENERATE DRUDE PSF                                         
* NB: WATER MUST BE LAST SEGMENT GENERATED DO TO NOANGLE NODIHEDRAL             
*  DATE:     4/29/25     19:36:15      CREATED BY USER: xtzhang                 

        14 !NATOM
         1 HETA     1        ETOH     C1       CD32A     1.67530       11.6110           0  -1.00000       1.30000    
         2 HETA     1        ETOH     DC1      DRUD     -1.73530      0.400000           0   0.00000       0.00000    
         3 HETA     1        ETOH     O1       OD31A     1.75950       15.5994           0  -1.02800       1.30000    
         4 HETA     1        ETOH     DO1      DRUD     -1.75950      0.400000           0   0.00000       0.00000    
         5 HETA     1        ETOH     HO1      HDP1A    0.360000       1.00800           0   0.00000       0.00000    
         6 HETA     1        ETOH     H1A      HDA2A    0.800000E-01   1.00800           0   0.00000       0.00000    
         7 HETA     1        ETOH     H1B      HDA2A    0.800000E-01   1.00800           0   0.00000       0.00000    
         8 HETA     1        ETOH     C2       CD33A     1.87330       11.6110           0  -1.40000       1.30000    
         9 HETA     1        ETOH     DC2      DRUD     -2.05330      0.400000           0   0.00000       0.00000    
        10 HETA     1        ETOH     H2A      HDA3A    0.600000E-01   1.00800           0   0.00000       0.00000    
        11 HETA     1        ETOH     H2B      HDA3A    0.600000E-01   1.00800           0   0.00000       0.00000    
        12 HETA     1        ETOH     H2C      HDA3A    0.600000E-01   1.00800           0   0.00000       0.00000    
        13 HETA     1        ETOH     LP1A     LPD     -0.230000       0.00000          -1   0.00000       0.00000    
        14 HETA     1        ETOH     LP1B     LPD     -0.230000       0.00000          -1   0.00000       0.00000    

        13 !NBOND: bonds
         1         2         3         4         8         9         1         8
         1         3         1         6         1         7         3         5
         8        10         8        11         8        12         3        13
         3        14

        13 !NTHETA: angles
         3         1         6         3         1         7         3         1         8
         6         1         7         6         1         8         7         1         8
         1         3         5         1         8        10         1         8        11
         1         8        12        10         8        11        10         8        12
        11         8        12

        12 !NPHI: dihedrals
         3         1         8        10         3         1         8        11
         3         1         8        12         5         3         1         6
         5         3         1         7         5         3         1         8
         6         1         8        10         6         1         8        11
         6         1         8        12         7         1         8        10
         7         1         8        11         7         1         8        12

         0 !NIMPHI: impropers


         0 !NDON: donors


         0 !NACC: acceptors


         0 !NNB

         0         0         0         0         0         0         0         0
         0         0         0         0         0         0

         1         0 !NGRP NST2
         0         1         0

         1 !MOLNT
         1         1         1         1         1         1         1         1
         1         1         1         1         1         1

         2         8 !NUMLP NUMLPH
         3         1   F  0.350000       110.000       91.0000    
         3         5   F  0.350000       110.000       269.000    
        13         3         1         5        14         3         1         5

         1 !NUMANISO
             102.800      -102.758       13.8746    
         3         1        13        14

         0 !NCRTERM: cross-terms

