         9  EXT
         1         1  ETOH      C2              -1.380300000         0.435400000         3.980100000  HETA      1               0.0000000000
         2         1  ETOH      H2A             -1.160000000         0.505000000         4.955100000  HETA      1               0.0000000000
         3         1  ETOH      H2B             -1.350700000        -0.526000000         3.702400000  HETA      1               0.0000000000
         4         1  ETOH      H2C             -0.705900000         0.952800000         3.451000000  HETA      1               0.0000000000
         5         1  ETOH      C1              -2.776500000         1.000600000         3.726400000  HETA      1               0.0000000000
         6         1  ETOH      H1A             -3.132200000         1.418800000         4.581100000  HETA      1               0.0000000000
         7         1  ETOH      H1B             -3.471200000         0.227100000         3.399000000  HETA      1               0.0000000000
         8         1  ETOH      O1              -2.716900000         2.017600000         2.718300000  HETA      1               0.0000000000
         9         1  ETOH      HO1             -3.532100000         2.604100000         2.765200000  HETA      1               0.0000000000