* GENERATED BY CHARMM-GUI (HTTP://WWW.CHARMM-GUI.ORG) V3.7 ON APR, 25. 2024. JOB
* READ CRD FILES AND GENERATE DRUDE PSF
* NB: WATER MUST BE LAST SEGMENT GENERATED DO TO NOANGLE NODIHEDRAL
*  DATE:     4/29/25     19:36:15      CREATED BY USER: xtzhang
*
        14  EXT
         1         1  ETOH      C1             -2.7765000000        1.0006000000        3.7264000000  HETA      1               0.0000000000
         2         1  ETOH      DC1            -2.7855194952        1.0000869146        3.7277311201  HETA      1               0.0000000000
         3         1  ETOH      O1             -2.7169000000        2.0176000000        2.7183000000  HETA      1               0.0000000000
         4         1  ETOH      DO1            -2.7073439513        2.0129127621        2.7219945757  HETA      1               0.0000000000
         5         1  ETOH      HO1            -3.5321000000        2.6041000000        2.7652000000  HETA      1               0.0000000000
         6         1  ETOH      H1A            -3.1322000000        1.4188000000        4.5811000000  HETA      1               0.0000000000
         7         1  ETOH      H1B            -3.4712000000        0.2271000000        3.3990000000  HETA      1               0.0000000000
         8         1  ETOH      C2             -1.3803000000        0.4354000000        3.9801000000  HETA      1               0.0000000000
         9         1  ETOH      DC2            -1.3964910557        0.4511512868        3.9714541886  HETA      1               0.0000000000
        10         1  ETOH      H2A            -1.1600000000        0.5050000000        4.9551000000  HETA      1               0.0000000000
        11         1  ETOH      H2B            -1.3507000000       -0.5260000000        3.7024000000  HETA      1               0.0000000000
        12         1  ETOH      H2C            -0.7059000000        0.9528000000        3.4510000000  HETA      1               0.0000000000
        13         1  ETOH      LP1A           -2.5513607036        2.2998143555        2.8426052650  HETA      1               0.0000000000
        14         1  ETOH      LP1B           -2.8623794245        1.9011484184        2.4220319352  HETA      1               0.0000000000
