* GENERATED BY CHARMM-GUI (HTTP://WWW.CHARMM-GUI.ORG) V3.7 ON APR, 25. 2024. JOB
* READ CRD FILES AND GENERATE DRUDE PSF
* NB: WATER MUST BE LAST SEGMENT GENERATED DO TO NOANGLE NODIHEDRAL
*  DATE:     4/26/24     14:58:58      CREATED BY USER: chenzhao
*
        14  EXT
         1         1  ETOH      C1             -0.4090000000       -1.4830000000       -3.7050000000  HETA      1               0.0000000000
         2         1  ETOH      DC1            -0.4090000000       -1.4830000000       -3.7050000000  HETA      1               0.0000000000
         3         1  ETOH      O1             -1.7410000000       -1.7550000000       -3.2490000000  HETA      1               0.0000000000
         4         1  ETOH      DO1            -1.7410000000       -1.7550000000       -3.2490000000  HETA      1               0.0000000000
         5         1  ETOH      HO1            -2.4030000000       -1.1870000000       -3.7470000000  HETA      1               0.0000000000
         6         1  ETOH      H1A             0.2280000000       -2.0830000000       -3.1890000000  HETA      1               0.0000000000
         7         1  ETOH      H1B            -0.3610000000       -1.7300000000       -4.7650000000  HETA      1               0.0000000000
         8         1  ETOH      C2             -0.0360000000       -0.0010000000       -3.4630000000  HETA      1               0.0000000000
         9         1  ETOH      DC2            -0.0360000000       -0.0010000000       -3.4630000000  HETA      1               0.0000000000
        10         1  ETOH      H2A            -0.6480000000        0.3820000000       -2.7740000000  HETA      1               0.0000000000
        11         1  ETOH      H2B             0.9070000000        0.0510000000       -3.1430000000  HETA      1               0.0000000000
        12         1  ETOH      H2C            -0.1320000000        0.5040000000       -4.3180000000  HETA      1               0.0000000000
        13         1  ETOH      LP1A           -1.8802202504       -2.0165750823       -3.4352691553  HETA      1               0.0000000000
        14         1  ETOH      LP1B           -1.8200567746       -1.5465683793       -2.9791736005  HETA      1               0.0000000000
