* GENERATED BY CHARMM-GUI (HTTP://WWW.CHARMM-GUI.ORG) V2.0 ON APR, 16. 2020. JOB
*  DATE:     4/26/24     15:46:29      CREATED BY USER: chenzhao
*
        23  EXT
         1         1  TOLU      CB              0.0052282147        2.8611678771        0.0294327271  HETB      1               0.0000000000
         2         1  TOLU      DCB             0.0051113389        2.8675373231        0.0294416483  HETB      1               0.0000000000
         3         1  TOLU      HB1             0.9606839846        3.2283156484        0.4614371086  HETB      1               0.0000000000
         4         1  TOLU      HB2            -0.7597017561        3.2219675308        0.7498678383  HETB      1               0.0000000000
         5         1  TOLU      HB3            -0.1502094012        3.4745961786       -0.8837298358  HETB      1               0.0000000000
         6         1  TOLU      CG              0.0026981707        1.4157053371       -0.0089980470  HETB      1               0.0000000000
         7         1  TOLU      DCG             0.0017298123        1.4202592261       -0.0087921090  HETB      1               0.0000000000
         8         1  TOLU      CD1            -1.1741955837       -0.6892883217       -0.0001124187  HETB      1               0.0000000000
         9         1  TOLU      DCD1           -1.1612400866       -0.6987872518       -0.0005846613  HETB      1               0.0000000000
        10         1  TOLU      HD1            -2.1190601896       -1.2123757163        0.0031208766  HETB      1               0.0000000000
        11         1  TOLU      CD2             1.1772710474       -0.6871993366       -0.0001346682  HETB      1               0.0000000000
        12         1  TOLU      DCD2            1.1653579930       -0.6946268484       -0.0005696266  HETB      1               0.0000000000
        13         1  TOLU      HD2             2.1203636366       -1.2134673945        0.0041431054  HETB      1               0.0000000000
        14         1  TOLU      CE1            -1.1634628939        0.6835747054        0.0118550085  HETB      1               0.0000000000
        15         1  TOLU      DCE1           -1.1690431207        0.6782344698        0.0128485770  HETB      1               0.0000000000
        16         1  TOLU      HE1            -2.1054818272        1.2110741976        0.0391426432  HETB      1               0.0000000000
        17         1  TOLU      CE2             1.1644599009        0.6801955583        0.0101671906  HETB      1               0.0000000000
        18         1  TOLU      DCE2            1.1694716000        0.6771186706        0.0111177870  HETB      1               0.0000000000
        19         1  TOLU      HE2             2.1044863150        1.2114551130        0.0328305167  HETB      1               0.0000000000
        20         1  TOLU      CZ              0.0010850478       -1.3658341637       -0.0140953555  HETB      1               0.0000000000
        21         1  TOLU      DCZ             0.0022488193       -1.3642311075       -0.0137526549  HETB      1               0.0000000000
        22         1  TOLU      HZ             -0.0010853519       -2.4455912230       -0.0368984775  HETB      1               0.0000000000
        23         1  TOLU      LP              0.0019155245       -0.0032818240       -0.0030127282  HETB      1               0.0000000000
