* GENERATED BY CHARMM-GUI (HTTP://WWW.CHARMM-GUI.ORG) V3.7 ON APR, 25. 2024. JOB
* READ CRD FILES AND GENERATE DRUDE PSF
* NB: WATER MUST BE LAST SEGMENT GENERATED DO TO NOANGLE NODIHEDRAL
*  DATE:     4/26/24     15: 0:29      CREATED BY USER: chenzhao
*
        23  EXT
         1         1  TOLU      CB              0.0130000000        2.9240000000        0.0780000000  HETB      1               0.0000000000
         2         1  TOLU      DCB             0.0130000000        2.9240000000        0.0780000000  HETB      1               0.0000000000
         3         1  TOLU      HB1             0.9000000000        3.2050000000        0.4340000000  HETB      1               0.0000000000
         4         1  TOLU      HB2            -0.7110000000        3.1990000000        0.7040000000  HETB      1               0.0000000000
         5         1  TOLU      HB3            -0.1460000000        3.4580000000       -0.8590000000  HETB      1               0.0000000000
         6         1  TOLU      CG              0.0030000000        1.4160000000       -0.0090000000  HETB      1               0.0000000000
         7         1  TOLU      DCG             0.0030000000        1.4160000000       -0.0090000000  HETB      1               0.0000000000
         8         1  TOLU      CD1            -1.2090000000       -0.7090000000       -0.0000000000  HETB      1               0.0000000000
         9         1  TOLU      DCD1           -1.2090000000       -0.7090000000       -0.0000000000  HETB      1               0.0000000000
        10         1  TOLU      HD1            -2.0840000000       -1.1930000000        0.0030000000  HETB      1               0.0000000000
        11         1  TOLU      CD2             1.2090000000       -0.7050000000       -0.0000000000  HETB      1               0.0000000000
        12         1  TOLU      DCD2            1.2090000000       -0.7050000000       -0.0000000000  HETB      1               0.0000000000
        13         1  TOLU      HD2             2.0890000000       -1.1960000000        0.0040000000  HETB      1               0.0000000000
        14         1  TOLU      CE1            -1.2030000000        0.7060000000        0.0130000000  HETB      1               0.0000000000
        15         1  TOLU      DCE1           -1.2030000000        0.7060000000        0.0130000000  HETB      1               0.0000000000
        16         1  TOLU      HE1            -2.0660000000        1.1890000000        0.0380000000  HETB      1               0.0000000000
        17         1  TOLU      CE2             1.1990000000        0.7000000000        0.0110000000  HETB      1               0.0000000000
        18         1  TOLU      DCE2            1.1990000000        0.7000000000        0.0110000000  HETB      1               0.0000000000
        19         1  TOLU      HE2             2.0700000000        1.1920000000        0.0320000000  HETB      1               0.0000000000
        20         1  TOLU      CZ              0.0010000000       -1.4090000000       -0.0150000000  HETB      1               0.0000000000
        21         1  TOLU      DCZ             0.0010000000       -1.4090000000       -0.0150000000  HETB      1               0.0000000000
        22         1  TOLU      HZ             -0.0010000000       -2.4030000000       -0.0360000000  HETB      1               0.0000000000
        23         1  TOLU      LP              0.0009948387       -0.0029858327       -0.0029845160  HETB      1               0.0000000000
