         9  EXT
         1         1  ETOH      C2               0.379600000        -1.009500000        -3.735300000  HETA      1               0.0000000000
         2         1  ETOH      H2A              1.129000000        -1.581300000        -4.078200000  HETA      1               0.0000000000
         3         1  ETOH      H2B              0.678000000        -0.051800000        -3.725200000  HETA      1               0.0000000000
         4         1  ETOH      H2C              0.156700000        -1.291400000        -2.798700000  HETA      1               0.0000000000
         5         1  ETOH      C1              -0.837900000        -1.163300000        -4.626400000  HETA      1               0.0000000000
         6         1  ETOH      H1A             -1.057500000        -2.145000000        -4.794700000  HETA      1               0.0000000000
         7         1  ETOH      H1B             -0.669000000        -0.670400000        -5.583900000  HETA      1               0.0000000000
         8         1  ETOH      O1              -1.958800000        -0.559800000        -3.977600000  HETA      1               0.0000000000
         9         1  ETOH      HO1             -1.714400000         0.351900000        -3.628900000  HETA      1               0.0000000000