* GENERATED BY PARMED (HTTPS://GITHUB.COM/PARMED/PARMED)
*
        19  EXT
         1         1  N1PA      C1              0.2400000000       -0.2640000000        0.6330000000  SYS       1               0.0000000000
         2         1  N1PA      C2              1.0000000000        1.0000000000        1.0000000000  SYS       1               0.0000000000
         3         1  N1PA      O3              0.4000000000        1.9980000000        1.2900000000  SYS       1               0.0000000000
         4         1  N1PA      N4              2.4010000000        1.0000000000        1.0000000000  SYS       1               0.0000000000
         5         1  N1PA      C5              3.2620000000        2.1400000000        1.3310000000  SYS       1               0.0000000000
         6         1  N1PA      C6              4.5630000000        1.5410000000        1.8300000000  SYS       1               0.0000000000
         7         1  N1PA      C7              4.5040000000        0.0590000000        1.5070000000  SYS       1               0.0000000000
         8         1  N1PA      C8              3.2610000000       -0.1400000000        0.6650000000  SYS       1               0.0000000000
         9         1  N1PA      H1              0.8900000000       -0.9940000000        0.4210000000  SYS       1               0.0000000000
        10         1  N1PA      H2             -0.3350000000       -0.5430000000        1.4020000000  SYS       1               0.0000000000
        11         1  N1PA      H3             -0.3350000000       -0.0870000000       -0.1660000000  SYS       1               0.0000000000
        12         1  N1PA      H4              2.8400000000        2.7000000000        2.0440000000  SYS       1               0.0000000000
        13         1  N1PA      H5              3.4260000000        2.7010000000        0.5190000000  SYS       1               0.0000000000
        14         1  N1PA      H6              4.6500000000        1.6760000000        2.8170000000  SYS       1               0.0000000000
        15         1  N1PA      H7              5.3400000000        1.9650000000        1.3660000000  SYS       1               0.0000000000
        16         1  N1PA      H8              5.3170000000       -0.2170000000        0.9960000000  SYS       1               0.0000000000
        17         1  N1PA      H9              4.4410000000       -0.4770000000        2.3490000000  SYS       1               0.0000000000
        18         1  N1PA      H10             3.4900000000       -0.1350000000       -0.3090000000  SYS       1               0.0000000000
        19         1  N1PA      H11             2.8110000000       -1.0020000000        0.8970000000  SYS       1               0.0000000000
