        19  EXT
         1         1  N1PA       C1             -1.130300000         6.563500000        -0.606900000  HETA      1               0.0000000000
         2         1  N1PA       C2             -1.290500000         6.675900000         0.376700000  HETA      1               0.0000000000
         3         1  N1PA       O3             -0.064800000         6.439900000        -0.801300000  HETA      1               0.0000000000
         4         1  N1PA       N4             -1.537100000         7.400600000        -1.174300000  HETA      1               0.0000000000
         5         1  N1PA       C5             -1.860700000         5.303900000        -1.062400000  HETA      1               0.0000000000
         6         1  N1PA       C6             -1.417500000         4.577000000        -1.954900000  HETA      1               0.0000000000
         7         1  N1PA       C7             -3.003100000         5.008400000        -0.458900000  HETA      1               0.0000000000
         8         1  N1PA       C8             -3.869000000         3.912700000        -0.979800000  HETA      1               0.0000000000
         9         1  N1PA       H1             -3.389300000         3.024400000        -0.890000000  HETA      1               0.0000000000
        10         1  N1PA       H2             -4.196200000         4.079900000        -2.006100000  HETA      1               0.0000000000
        11         1  N1PA       H3             -5.024100000         3.902000000         0.018200000  HETA      1               0.0000000000
        12         1  N1PA       H4             -5.826300000         4.392100000        -0.354200000  HETA      1               0.0000000000
        13         1  N1PA       H5             -5.310500000         2.956300000         0.228100000  HETA      1               0.0000000000
        14         1  N1PA       H6             -4.527600000         4.588600000         1.270100000  HETA      1               0.0000000000
        15         1  N1PA       H7             -5.284600000         5.014600000         1.756700000  HETA      1               0.0000000000
        16         1  N1PA       H8             -4.060900000         3.938300000         1.861400000  HETA      1               0.0000000000
        17         1  N1PA       H9             -3.557700000         5.639900000         0.752300000  HETA      1               0.0000000000
        18         1  N1PA      H10             -4.033400000         6.484800000         0.525100000  HETA      1               0.0000000000
        19         1  N1PA      H11             -2.837600000         5.823000000         1.417800000  HETA      1               0.0000000000