PSF CHEQ EXT XPLOR

         1 !NTITLE


        38 !NATOM
         1 SYS      1        N1PA     C1       C1       0.000000       12.0107           
         2 SYS      1        N1PA     C2       C2       0.000000       12.0107           
         3 SYS      1        N1PA     O3       O3       0.000000       15.9994           
         4 SYS      1        N1PA     N4       N4       0.000000       14.0067           
         5 SYS      1        N1PA     C5       C5       0.000000       12.0107           
         6 SYS      1        N1PA     C6       C6       0.000000       12.0107           
         7 SYS      1        N1PA     C7       C7       0.000000       12.0107           
         8 SYS      1        N1PA     C8       C8       0.000000       12.0107           
         9 SYS      1        N1PA     H1       H1       0.000000        1.0079           
        10 SYS      1        N1PA     H2       H2       0.000000        1.0079           
        11 SYS      1        N1PA     H3       H3       0.000000        1.0079           
        12 SYS      1        N1PA     H4       H4       0.000000        1.0079           
        13 SYS      1        N1PA     H5       H5       0.000000        1.0079           
        14 SYS      1        N1PA     H6       H6       0.000000        1.0079           
        15 SYS      1        N1PA     H7       H7       0.000000        1.0079           
        16 SYS      1        N1PA     H8       H8       0.000000        1.0079           
        17 SYS      1        N1PA     H9       H9       0.000000        1.0079           
        18 SYS      1        N1PA     H10      H10      0.000000        1.0079           
        19 SYS      1        N1PA     H11      H11      0.000000        1.0079           
        20 SYS      2        N1PA     C1       C1       0.000000       12.0107           
        21 SYS      2        N1PA     C2       C2       0.000000       12.0107           
        22 SYS      2        N1PA     O3       O3       0.000000       15.9994           
        23 SYS      2        N1PA     N4       N4       0.000000       14.0067           
        24 SYS      2        N1PA     C5       C5       0.000000       12.0107           
        25 SYS      2        N1PA     C6       C6       0.000000       12.0107           
        26 SYS      2        N1PA     C7       C7       0.000000       12.0107           
        27 SYS      2        N1PA     C8       C8       0.000000       12.0107           
        28 SYS      2        N1PA     H1       H1       0.000000        1.0079           
        29 SYS      2        N1PA     H2       H2       0.000000        1.0079           
        30 SYS      2        N1PA     H3       H3       0.000000        1.0079           
        31 SYS      2        N1PA     H4       H4       0.000000        1.0079           
        32 SYS      2        N1PA     H5       H5       0.000000        1.0079           
        33 SYS      2        N1PA     H6       H6       0.000000        1.0079           
        34 SYS      2        N1PA     H7       H7       0.000000        1.0079           
        35 SYS      2        N1PA     H8       H8       0.000000        1.0079           
        36 SYS      2        N1PA     H9       H9       0.000000        1.0079           
        37 SYS      2        N1PA     H10      H10      0.000000        1.0079           
        38 SYS      2        N1PA     H11      H11      0.000000        1.0079           

        95 !NBOND: bonds
        12        24        12        31        12         5        11         1
        11        20        11        30        19        27        19        38
        19         8        20         1        20         2        20        21
        20         9        20        10        20        28        20        29
        20        30        21         1        21         2        21         3
        21         4        21        22        21        23        22         2
        22         3        23        24        23        27        23         2
        23         4        23         5        23         8        24        25
        24        31        24        32        24         4        24         5
        24         6        24        13        25        33        25        34
        25         5        25         6        25         7        25        26
        25        15        25        14        26        35        26        36
        26         6        26         7        26         8        26        27
        26        17        26        16        27        37        27         4
        27        38        27         7        27         8        27        18
        28         1        28         9        29         1        29        10
        30         1        31         5        32         5        32        13
        33         6        33        14         1         2         1         9
         1        10        34         6        34        15        35         7
        35        16         2         3         2         4        36         7
        36        17        37         8        37        18         4         5
         4         8        38         8         5         6         5        13
         6         7         6        15         6        14         7         8
         7        17         7        16         8        18

         0 !NTHETA: angles


         0 !NPHI: dihedrals


         0 !NIMPHI: impropers


         0 !NDON: donors


         0 !NACC: acceptors


         0 !NNB

         0         0         0         0         0         0         0         0
         0         0         0         0         0         0         0         0
         0         0         0         0         0         0         0         0
         0         0         0         0         0         0         0         0
         0         0         0         0         0         0

         2         0 !NGRP NST2
         0         1         0        19         1         0

         1 !MOLNT
         1         1         1         1         1         1         1         1
         1         1         1         1         1         1         1         1
         1         1         1         1         1         1         1         1
         1         1         1         1         1         1         1         1
         1         1         1         1         1         1

         0         0 !NUMLP NUMLPH

         0 !NCRTERM: cross-terms

