PSF EXT CMAP CHEQ DRUDE XPLOR

         4 !NTITLE
* GENERATED BY CHARMM-GUI (HTTP://WWW.CHARMM-GUI.ORG) V3.7 ON APR, 25. 2024. JOB
* READ CRD FILES AND GENERATE DRUDE PSF                                         
* NB: WATER MUST BE LAST SEGMENT GENERATED DO TO NOANGLE NODIHEDRAL             
*  DATE:     4/28/25     21:53:54      CREATED BY USER: xtzhang                 

        37 !NATOM
         1 HETA     1        ETOH     C1       CD32A     1.67530       11.6110           0  -1.00000       1.30000    
         2 HETA     1        ETOH     DC1      DRUD     -1.73530      0.400000           0   0.00000       0.00000    
         3 HETA     1        ETOH     O1       OD31A     1.75950       15.5994           0  -1.02800       1.30000    
         4 HETA     1        ETOH     DO1      DRUD     -1.75950      0.400000           0   0.00000       0.00000    
         5 HETA     1        ETOH     HO1      HDP1A    0.360000       1.00800           0   0.00000       0.00000    
         6 HETA     1        ETOH     H1A      HDA2A    0.800000E-01   1.00800           0   0.00000       0.00000    
         7 HETA     1        ETOH     H1B      HDA2A    0.800000E-01   1.00800           0   0.00000       0.00000    
         8 HETA     1        ETOH     C2       CD33A     1.87330       11.6110           0  -1.40000       1.30000    
         9 HETA     1        ETOH     DC2      DRUD     -2.05330      0.400000           0   0.00000       0.00000    
        10 HETA     1        ETOH     H2A      HDA3A    0.600000E-01   1.00800           0   0.00000       0.00000    
        11 HETA     1        ETOH     H2B      HDA3A    0.600000E-01   1.00800           0   0.00000       0.00000    
        12 HETA     1        ETOH     H2C      HDA3A    0.600000E-01   1.00800           0   0.00000       0.00000    
        13 HETA     1        ETOH     LP1A     LPD     -0.230000       0.00000          -1   0.00000       0.00000    
        14 HETA     1        ETOH     LP1B     LPD     -0.230000       0.00000          -1   0.00000       0.00000    
        15 HETB     1        TOLU     CB       CD33A     1.97150       11.6110           0  -1.60800      0.438000    
        16 HETB     1        TOLU     DCB      DRUD     -2.20050      0.400000           0   0.00000       0.00000    
        17 HETB     1        TOLU     HB1      HDA3A    0.790000E-01   1.00800           0   0.00000       0.00000    
        18 HETB     1        TOLU     HB2      HDA3A    0.790000E-01   1.00800           0   0.00000       0.00000    
        19 HETB     1        TOLU     HB3      HDA3A    0.790000E-01   1.00800           0   0.00000       0.00000    
        20 HETB     1        TOLU     CG       CD2R6A    2.19750       11.6110           0  -1.55000       1.26200    
        21 HETB     1        TOLU     DCG      DRUD     -2.16050      0.400000           0   0.00000       0.00000    
        22 HETB     1        TOLU     CD1      CD2R6A    2.11080       11.6110           0  -1.60400       1.26200    
        23 HETB     1        TOLU     DCD1     DRUD     -2.19780      0.400000           0   0.00000       0.00000    
        24 HETB     1        TOLU     HD1      HDR6A    0.990000E-01   1.00800           0   0.00000       0.00000    
        25 HETB     1        TOLU     CD2      CD2R6A    2.11080       11.6110           0  -1.60400       1.26200    
        26 HETB     1        TOLU     DCD2     DRUD     -2.19780      0.400000           0   0.00000       0.00000    
        27 HETB     1        TOLU     HD2      HDR6A    0.990000E-01   1.00800           0   0.00000       0.00000    
        28 HETB     1        TOLU     CE1      CD2R6A    2.08520       11.6110           0  -1.60600       1.26200    
        29 HETB     1        TOLU     DCE1     DRUD     -2.19920      0.400000           0   0.00000       0.00000    
        30 HETB     1        TOLU     HE1      HDR6A    0.960000E-01   1.00800           0   0.00000       0.00000    
        31 HETB     1        TOLU     CE2      CD2R6A    2.08520       11.6110           0  -1.60600       1.26200    
        32 HETB     1        TOLU     DCE2     DRUD     -2.19920      0.400000           0   0.00000       0.00000    
        33 HETB     1        TOLU     HE2      HDR6A    0.960000E-01   1.00800           0   0.00000       0.00000    
        34 HETB     1        TOLU     CZ       CD2R6A    2.06890       11.6110           0  -1.61000       1.26200    
        35 HETB     1        TOLU     DCZ      DRUD     -2.20190      0.400000           0   0.00000       0.00000    
        36 HETB     1        TOLU     HZ       HDR6A    0.100000       1.00800           0   0.00000       0.00000    
        37 HETB     1        TOLU     LP       LPA1      0.00000       0.00000          -1   0.00000       0.00000    

        35 !NBOND: bonds
         1         2         3         4         8         9         1         8
         1         3         1         6         1         7         3         5
         8        10         8        11         8        12         3        13
         3        14        15        16        20        21        22        23
        25        26        28        29        31        32        34        35
        22        20        25        20        28        22        31        25
        34        28        34        31        20        15        22        24
        25        27        28        30        31        33        34        36
        15        17        15        18        15        19

        37 !NTHETA: angles
         3         1         6         3         1         7         3         1         8
         6         1         7         6         1         8         7         1         8
         1         3         5         1         8        10         1         8        11
         1         8        12        10         8        11        10         8        12
        11         8        12        17        15        18        17        15        19
        17        15        20        18        15        19        18        15        20
        19        15        20        15        20        22        15        20        25
        22        20        25        20        22        24        20        22        28
        24        22        28        20        25        27        20        25        31
        27        25        31        22        28        30        22        28        34
        30        28        34        25        31        33        25        31        34
        33        31        34        28        34        31        28        34        36
        31        34        36

        42 !NPHI: dihedrals
         3         1         8        10         3         1         8        11
         3         1         8        12         5         3         1         6
         5         3         1         7         5         3         1         8
         6         1         8        10         6         1         8        11
         6         1         8        12         7         1         8        10
         7         1         8        11         7         1         8        12
        15        20        22        24        15        20        22        28
        15        20        25        27        15        20        25        31
        17        15        20        22        17        15        20        25
        18        15        20        22        18        15        20        25
        19        15        20        22        19        15        20        25
        20        22        28        30        20        22        28        34
        20        25        31        33        20        25        31        34
        22        20        25        27        22        20        25        31
        22        28        34        31        22        28        34        36
        24        22        20        25        24        22        28        30
        24        22        28        34        25        20        22        28
        25        31        34        28        25        31        34        36
        27        25        31        33        27        25        31        34
        28        34        31        33        30        28        34        31
        30        28        34        36        33        31        34        36

         0 !NIMPHI: impropers


         0 !NDON: donors


         0 !NACC: acceptors


         0 !NNB

         0         0         0         0         0         0         0         0
         0         0         0         0         0         0         0         0
         0         0         0         0         0         0         0         0
         0         0         0         0         0         0         0         0
         0         0         0         0         0

         2         0 !NGRP NST2
         0         1         0        14         1         0

         1 !MOLNT
         1         1         1         1         1         1         1         1
         1         1         1         1         1         1         1         1
         1         1         1         1         1         1         1         1
         1         1         1         1         1         1         1         1
         1         1         1         1         1

         3        12 !NUMLP NUMLPH
         3         1   F  0.350000       110.000       91.0000    
         3         5   F  0.350000       110.000       269.000    
         3         9   F  -1.41900       0.00000       0.00000    
        13         3         1         5        14         3         1         5
        37        20        22        25

         1 !NUMANISO
             102.800      -102.758       13.8746    
         3         1        13        14

         0 !NCRTERM: cross-terms

