* GENERATED BY CHARMM-GUI (HTTP://WWW.CHARMM-GUI.ORG) V3.7 ON APR, 25. 2024. JOB
* READ CRD FILES AND GENERATE DRUDE PSF
* NB: WATER MUST BE LAST SEGMENT GENERATED DO TO NOANGLE NODIHEDRAL
*  DATE:     4/28/25     21:53:54      CREATED BY USER: xtzhang
*
        37  EXT
         1         1  ETOH      C1              0.5593000000       -3.0863000000       -2.8262000000  HETA      1               0.0000000000
         2         1  ETOH      DC1             0.5593000000       -3.0863000000       -2.8262000000  HETA      1               0.0000000000
         3         1  ETOH      O1              0.6804000000       -4.3248000000       -2.1806000000  HETA      1               0.0000000000
         4         1  ETOH      DO1             0.6804000000       -4.3248000000       -2.1806000000  HETA      1               0.0000000000
         5         1  ETOH      HO1             1.3017000000       -4.9185000000       -2.6956000000  HETA      1               0.0000000000
         6         1  ETOH      H1A             1.1405000000       -2.4137000000       -2.3624000000  HETA      1               0.0000000000
         7         1  ETOH      H1B            -0.3947000000       -2.7812000000       -2.7798000000  HETA      1               0.0000000000
         8         1  ETOH      C2              0.9743000000       -3.1545000000       -4.2960000000  HETA      1               0.0000000000
         9         1  ETOH      DC2             0.9743000000       -3.1545000000       -4.2960000000  HETA      1               0.0000000000
        10         1  ETOH      H2A             1.8989000000       -3.5352000000       -4.3765000000  HETA      1               0.0000000000
        11         1  ETOH      H2B             0.9775000000       -2.1464000000       -4.7105000000  HETA      1               0.0000000000
        12         1  ETOH      H2C             0.3038000000       -3.7892000000       -4.8754000000  HETA      1               0.0000000000
        13         1  ETOH      LP1A            0.9413934136       -4.3133659161       -1.9476800572  HETA      1               0.0000000000
        14         1  ETOH      LP1B            0.4328753553       -4.5441779362       -2.2950765102  HETA      1               0.0000000000
        15         2  TOLU      CB             -0.0030000000        2.9040000000        0.0320000000  HETB      1               0.0000000000
        16         2  TOLU      DCB            -0.0030000000        2.9040000000        0.0320000000  HETB      1               0.0000000000
        17         2  TOLU      HB1             0.8130000000        3.1990000000        0.5060000000  HETB      1               0.0000000000
        18         2  TOLU      HB2            -0.8190000000        3.1980000000        0.5070000000  HETB      1               0.0000000000
        19         2  TOLU      HB3            -0.0030000000        3.3650000000       -0.9550000000  HETB      1               0.0000000000
        20         2  TOLU      CG             -0.0020000000        1.4000000000        0.0020000000  HETB      1               0.0000000000
        21         2  TOLU      DCG            -0.0020000000        1.4000000000        0.0020000000  HETB      1               0.0000000000
        22         2  TOLU      CD1            -1.1940000000       -0.6990000000        0.0000000000  HETB      1               0.0000000000
        23         2  TOLU      DCD1           -1.1940000000       -0.6990000000        0.0000000000  HETB      1               0.0000000000
        24         2  TOLU      HD1            -2.0720000000       -1.1910000000        0.0020000000  HETB      1               0.0000000000
        25         2  TOLU      CD2             1.1940000000       -0.6980000000       -0.0000000000  HETB      1               0.0000000000
        26         2  TOLU      DCD2            1.1940000000       -0.6980000000       -0.0000000000  HETB      1               0.0000000000
        27         2  TOLU      HD2             2.0800000000       -1.1900000000        0.0020000000  HETB      1               0.0000000000
        28         2  TOLU      CE1            -1.1910000000        0.6930000000       -0.0010000000  HETB      1               0.0000000000
        29         2  TOLU      DCE1           -1.1910000000        0.6930000000       -0.0010000000  HETB      1               0.0000000000
        30         2  TOLU      HE1            -2.0610000000        1.1790000000       -0.0060000000  HETB      1               0.0000000000
        31         2  TOLU      CE2             1.1890000000        0.6950000000       -0.0010000000  HETB      1               0.0000000000
        32         2  TOLU      DCE2            1.1890000000        0.6950000000       -0.0010000000  HETB      1               0.0000000000
        33         2  TOLU      HE2             2.0600000000        1.1880000000       -0.0050000000  HETB      1               0.0000000000
        34         2  TOLU      CZ              0.0030000000       -1.3910000000        0.0000000000  HETB      1               0.0000000000
        35         2  TOLU      DCZ             0.0030000000       -1.3910000000        0.0000000000  HETB      1               0.0000000000
        36         2  TOLU      HZ             -0.0010000000       -2.3930000000        0.0000000000  HETB      1               0.0000000000
        37         2  TOLU      LP             -0.0006476067       -0.0189987111        0.0006476067  HETB      1               0.0000000000
