* GENERATED BY CHARMM-GUI (HTTP://WWW.CHARMM-GUI.ORG) V3.7 ON APR, 25. 2024. JOB
* READ CRD FILES AND GENERATE DRUDE PSF
* NB: WATER MUST BE LAST SEGMENT GENERATED DO TO NOANGLE NODIHEDRAL
*  DATE:     4/28/25     22: 0:45      CREATED BY USER: xtzhang
*
        14  EXT
         1         1  ETOH      C1              0.5593000000       -3.0863000000       -2.8262000000  HETA      1               0.0000000000
         2         1  ETOH      DC1             0.5593000000       -3.0863000000       -2.8262000000  HETA      1               0.0000000000
         3         1  ETOH      O1              0.6804000000       -4.3248000000       -2.1806000000  HETA      1               0.0000000000
         4         1  ETOH      DO1             0.6804000000       -4.3248000000       -2.1806000000  HETA      1               0.0000000000
         5         1  ETOH      HO1             1.3017000000       -4.9185000000       -2.6956000000  HETA      1               0.0000000000
         6         1  ETOH      H1A             1.1405000000       -2.4137000000       -2.3624000000  HETA      1               0.0000000000
         7         1  ETOH      H1B            -0.3947000000       -2.7812000000       -2.7798000000  HETA      1               0.0000000000
         8         1  ETOH      C2              0.9743000000       -3.1545000000       -4.2960000000  HETA      1               0.0000000000
         9         1  ETOH      DC2             0.9743000000       -3.1545000000       -4.2960000000  HETA      1               0.0000000000
        10         1  ETOH      H2A             1.8989000000       -3.5352000000       -4.3765000000  HETA      1               0.0000000000
        11         1  ETOH      H2B             0.9775000000       -2.1464000000       -4.7105000000  HETA      1               0.0000000000
        12         1  ETOH      H2C             0.3038000000       -3.7892000000       -4.8754000000  HETA      1               0.0000000000
        13         1  ETOH      LP1A            0.9413934136       -4.3133659161       -1.9476800572  HETA      1               0.0000000000
        14         1  ETOH      LP1B            0.4328753553       -4.5441779362       -2.2950765102  HETA      1               0.0000000000
