* GENERATED BY CHARMM-GUI (HTTP://WWW.CHARMM-GUI.ORG) V3.7 ON APR, 25. 2024. JOB
* READ CRD FILES AND GENERATE DRUDE PSF
* NB: WATER MUST BE LAST SEGMENT GENERATED DO TO NOANGLE NODIHEDRAL
*  DATE:     4/29/25     15:34:17      CREATED BY USER: xtzhang
*
        23  EXT
         1         1  TOLU      CB             -0.0030601966        2.8346225036       -0.0161598477  HETB      1               0.0000000000
         2         1  TOLU      DCB            -0.0030744635        2.8411353305       -0.0163045990  HETB      1               0.0000000000
         3         1  TOLU      HB1             0.8728626519        3.2257257187        0.5443028527  HETB      1               0.0000000000
         4         1  TOLU      HB2            -0.8788043485        3.2246303489        0.5453444363  HETB      1               0.0000000000
         5         1  TOLU      HB3            -0.0029982085        3.3810756591       -0.9834808620  HETB      1               0.0000000000
         6         1  TOLU      CG             -0.0022612900        1.3997121066        0.0020078495  HETB      1               0.0000000000
         7         1  TOLU      DCG            -0.0024942096        1.4045564869        0.0011385794  HETB      1               0.0000000000
         8         1  TOLU      CD1            -1.1621278955       -0.6807070861       -0.0000561592  HETB      1               0.0000000000
         9         1  TOLU      DCD1           -1.1494586866       -0.6894233277       -0.0003459910  HETB      1               0.0000000000
        10         1  TOLU      HD1            -2.1041101609       -1.2089730065        0.0020720082  HETB      1               0.0000000000
        11         1  TOLU      CD2             1.1647591630       -0.6816532430       -0.0000483452  HETB      1               0.0000000000
        12         1  TOLU      DCD2            1.1522586236       -0.6899949442       -0.0003380573  HETB      1               0.0000000000
        13         1  TOLU      HD2             2.1089149804       -1.2060246092        0.0020641704  HETB      1               0.0000000000
        14         1  TOLU      CE1            -1.1546094172        0.6723833286       -0.0007919727  HETB      1               0.0000000000
        15         1  TOLU      DCE1           -1.1601370642        0.6678973359        0.0003731533  HETB      1               0.0000000000
        16         1  TOLU      HE1            -2.0973457069        1.1992789041       -0.0062086719  HETB      1               0.0000000000
        17         1  TOLU      CE2             1.1545951862        0.6752375691       -0.0008429431  HETB      1               0.0000000000
        18         1  TOLU      DCE2            1.1599591476        0.6711373089        0.0003189572  HETB      1               0.0000000000
        19         1  TOLU      HE2             2.0943609147        1.2074234003       -0.0051576465  HETB      1               0.0000000000
        20         1  TOLU      CZ              0.0031529346       -1.3517268961       -0.0000001552  HETB      1               0.0000000000
        21         1  TOLU      DCZ             0.0033716944       -1.3501220580        0.0002039707  HETB      1               0.0000000000
        22         1  TOLU      HZ             -0.0011540909       -2.4317183080       -0.0000001366  HETB      1               0.0000000000
        23         1  TOLU      LP              0.0001778775       -0.0192851016        0.0006030298  HETB      1               0.0000000000
