        15  EXT
         1         1  TOLU      CB              -0.003000000         2.904000000         0.032000000  HETB      1               0.0000000000
         2         1  TOLU      HB1              0.813000000         3.199000000         0.506000000  HETB      1               0.0000000000
         3         1  TOLU      HB2             -0.819000000         3.198000000         0.507000000  HETB      1               0.0000000000
         4         1  TOLU      HB3             -0.003000000         3.365000000        -0.955000000  HETB      1               0.0000000000
         5         1  TOLU      CG              -0.002000000         1.400000000         0.002000000  HETB      1               0.0000000000
         6         1  TOLU      CE1             -1.191000000         0.693000000        -0.001000000  HETB      1               0.0000000000
         7         1  TOLU      HE1             -2.061000000         1.179000000        -0.006000000  HETB      1               0.0000000000
         8         1  TOLU      CD1             -1.194000000        -0.699000000         0.000000000  HETB      1               0.0000000000
         9         1  TOLU      HD1             -2.072000000        -1.191000000         0.002000000  HETB      1               0.0000000000
        10         1  TOLU      CZ               0.003000000        -1.391000000         0.000000000  HETB      1               0.0000000000
        11         1  TOLU      HZ              -0.001000000        -2.393000000         0.000000000  HETB      1               0.0000000000
        12         1  TOLU      CD2              1.194000000        -0.698000000        -0.000000000  HETB      1               0.0000000000
        13         1  TOLU      HD2              2.080000000        -1.190000000         0.002000000  HETB      1               0.0000000000
        14         1  TOLU      CE2              1.189000000         0.695000000        -0.001000000  HETB      1               0.0000000000
        15         1  TOLU      HE2              2.060000000         1.188000000        -0.005000000  HETB      1               0.0000000000