PSF EXT CMAP CHEQ DRUDE XPLOR

         2 !NTITLE
* GENERATED BY CHARMM-GUI (HTTP://WWW.CHARMM-GUI.ORG) V2.0 ON APR, 16. 2020. JOB
*  DATE:     4/29/25     15:17:28      CREATED BY USER: xtzhang                 

        23 !NATOM
         1 HETB     1        TOLU     CB       CD33A     1.97150       11.6110           0  -1.60800      0.438000    
         2 HETB     1        TOLU     DCB      DRUD     -2.20050      0.400000           0   0.00000       0.00000    
         3 HETB     1        TOLU     HB1      HDA3A    0.790000E-01   1.00800           0   0.00000       0.00000    
         4 HETB     1        TOLU     HB2      HDA3A    0.790000E-01   1.00800           0   0.00000       0.00000    
         5 HETB     1        TOLU     HB3      HDA3A    0.790000E-01   1.00800           0   0.00000       0.00000    
         6 HETB     1        TOLU     CG       CD2R6A    2.19750       11.6110           0  -1.55000       1.26200    
         7 HETB     1        TOLU     DCG      DRUD     -2.16050      0.400000           0   0.00000       0.00000    
         8 HETB     1        TOLU     CD1      CD2R6A    2.11080       11.6110           0  -1.60400       1.26200    
         9 HETB     1        TOLU     DCD1     DRUD     -2.19780      0.400000           0   0.00000       0.00000    
        10 HETB     1        TOLU     HD1      HDR6A    0.990000E-01   1.00800           0   0.00000       0.00000    
        11 HETB     1        TOLU     CD2      CD2R6A    2.11080       11.6110           0  -1.60400       1.26200    
        12 HETB     1        TOLU     DCD2     DRUD     -2.19780      0.400000           0   0.00000       0.00000    
        13 HETB     1        TOLU     HD2      HDR6A    0.990000E-01   1.00800           0   0.00000       0.00000    
        14 HETB     1        TOLU     CE1      CD2R6A    2.08520       11.6110           0  -1.60600       1.26200    
        15 HETB     1        TOLU     DCE1     DRUD     -2.19920      0.400000           0   0.00000       0.00000    
        16 HETB     1        TOLU     HE1      HDR6A    0.960000E-01   1.00800           0   0.00000       0.00000    
        17 HETB     1        TOLU     CE2      CD2R6A    2.08520       11.6110           0  -1.60600       1.26200    
        18 HETB     1        TOLU     DCE2     DRUD     -2.19920      0.400000           0   0.00000       0.00000    
        19 HETB     1        TOLU     HE2      HDR6A    0.960000E-01   1.00800           0   0.00000       0.00000    
        20 HETB     1        TOLU     CZ       CD2R6A    2.06890       11.6110           0  -1.61000       1.26200    
        21 HETB     1        TOLU     DCZ      DRUD     -2.20190      0.400000           0   0.00000       0.00000    
        22 HETB     1        TOLU     HZ       HDR6A    0.100000       1.00800           0   0.00000       0.00000    
        23 HETB     1        TOLU     LP       LPA1      0.00000       0.00000          -1   0.00000       0.00000    

        22 !NBOND: bonds
         1         2         6         7         8         9        11        12
        14        15        17        18        20        21         8         6
        11         6        14         8        17        11        20        14
        20        17         6         1         8        10        11        13
        14        16        17        19        20        22         1         3
         1         4         1         5

        24 !NTHETA: angles
         3         1         4         3         1         5         3         1         6
         4         1         5         4         1         6         5         1         6
         1         6         8         1         6        11         8         6        11
         6         8        10         6         8        14        10         8        14
         6        11        13         6        11        17        13        11        17
         8        14        16         8        14        20        16        14        20
        11        17        19        11        17        20        19        17        20
        14        20        17        14        20        22        17        20        22

        30 !NPHI: dihedrals
         1         6         8        10         1         6         8        14
         1         6        11        13         1         6        11        17
         3         1         6         8         3         1         6        11
         4         1         6         8         4         1         6        11
         5         1         6         8         5         1         6        11
         6         8        14        16         6         8        14        20
         6        11        17        19         6        11        17        20
         8         6        11        13         8         6        11        17
         8        14        20        17         8        14        20        22
        10         8         6        11        10         8        14        16
        10         8        14        20        11         6         8        14
        11        17        20        14        11        17        20        22
        13        11        17        19        13        11        17        20
        14        20        17        19        16        14        20        17
        16        14        20        22        19        17        20        22

         0 !NIMPHI: impropers


         0 !NDON: donors


         0 !NACC: acceptors


         0 !NNB

         0         0         0         0         0         0         0         0
         0         0         0         0         0         0         0         0
         0         0         0         0         0         0         0

         1         0 !NGRP NST2
         0         1         0

         1 !MOLNT
         1         1         1         1         1         1         1         1
         1         1         1         1         1         1         1         1
         1         1         1         1         1         1         1

         1         4 !NUMLP NUMLPH
         3         1   F  -1.41900       0.00000       0.00000    
        23         6         8        11

         0 !NUMANISO

         0 !NCRTERM: cross-terms

