* GENERATED BY CHARMM-GUI (HTTP://WWW.CHARMM-GUI.ORG) V2.0 ON APR, 16. 2020. JOB
*  DATE:     4/29/25     15:17:28      CREATED BY USER: xtzhang
*
        23  EXT
         1         1  TOLU      CB             -0.0030601965        2.8346225037       -0.0161598476  HETB      1               0.0000000000
         2         1  TOLU      DCB            -0.0030736160        2.8411356832       -0.0163045681  HETB      1               0.0000000000
         3         1  TOLU      HB1             0.8728626520        3.2257257187        0.5443028527  HETB      1               0.0000000000
         4         1  TOLU      HB2            -0.8788043485        3.2246303489        0.5453444363  HETB      1               0.0000000000
         5         1  TOLU      HB3            -0.0029982085        3.3810756592       -0.9834808621  HETB      1               0.0000000000
         6         1  TOLU      CG             -0.0022612897        1.3997121065        0.0020078494  HETB      1               0.0000000000
         7         1  TOLU      DCG            -0.0024866447        1.4045566536        0.0011383380  HETB      1               0.0000000000
         8         1  TOLU      CD1            -1.1621278956       -0.6807070858       -0.0000561592  HETB      1               0.0000000000
         9         1  TOLU      DCD1           -1.1494627442       -0.6894164277       -0.0003461516  HETB      1               0.0000000000
        10         1  TOLU      HD1            -2.1041101609       -1.2089730065        0.0020720082  HETB      1               0.0000000000
        11         1  TOLU      CD2             1.1647591629       -0.6816532433       -0.0000483452  HETB      1               0.0000000000
        12         1  TOLU      DCD2            1.1522547773       -0.6900017535       -0.0003382048  HETB      1               0.0000000000
        13         1  TOLU      HD2             2.1089149805       -1.2060246091        0.0020641704  HETB      1               0.0000000000
        14         1  TOLU      CE1            -1.1546094171        0.6723833288       -0.0007919727  HETB      1               0.0000000000
        15         1  TOLU      DCE1           -1.1601332566        0.6679043096        0.0003734252  HETB      1               0.0000000000
        16         1  TOLU      HE1            -2.0973457069        1.1992789041       -0.0062086720  HETB      1               0.0000000000
        17         1  TOLU      CE2             1.1545951862        0.6752375690       -0.0008429430  HETB      1               0.0000000000
        18         1  TOLU      DCE2            1.1599626159        0.6711306390        0.0003191942  HETB      1               0.0000000000
        19         1  TOLU      HE2             2.0943609146        1.2074234004       -0.0051576465  HETB      1               0.0000000000
        20         1  TOLU      CZ              0.0031529342       -1.3517268961       -0.0000001553  HETB      1               0.0000000000
        21         1  TOLU      DCZ             0.0033636443       -1.3501219192        0.0002039957  HETB      1               0.0000000000
        22         1  TOLU      HZ             -0.0011540908       -2.4317183079       -0.0000001366  HETB      1               0.0000000000
        23         1  TOLU      LP              0.0001778775       -0.0192851017        0.0006030297  HETB      1               0.0000000000
