         9  EXT
         1         1  ETOH      C2               0.974300000        -3.154500000        -4.296000000  HETA      1               0.0000000000
         2         1  ETOH      H2A              1.898900000        -3.535200000        -4.376500000  HETA      1               0.0000000000
         3         1  ETOH      H2B              0.977500000        -2.146400000        -4.710500000  HETA      1               0.0000000000
         4         1  ETOH      H2C              0.303800000        -3.789200000        -4.875400000  HETA      1               0.0000000000
         5         1  ETOH      C1               0.559300000        -3.086300000        -2.826200000  HETA      1               0.0000000000
         6         1  ETOH      H1A              1.140500000        -2.413700000        -2.362400000  HETA      1               0.0000000000
         7         1  ETOH      H1B             -0.394700000        -2.781200000        -2.779800000  HETA      1               0.0000000000
         8         1  ETOH      O1               0.680400000        -4.324800000        -2.180600000  HETA      1               0.0000000000
         9         1  ETOH      HO1              1.301700000        -4.918500000        -2.695600000  HETA      1               0.0000000000